
Host: morifam

Timers On : Sat Dec  7 12:39:17 2024
Timers Off: Sat Dec  7 12:39:43 2024

Wall Time:       25.57 seconds

                                                       Time (seconds)
Module                                       User      System        Wall        Calls

--------------------------------------------------------------------------------------

**************************************************************************************
